[Molden Format]
[Title]
Written by TeraChem
[Atoms] Angs
C   1   6     -1.25495   -0.11899    0.00147
C   2   6     -0.43742   -1.24027   -0.00064
C   3   6      0.95042   -0.91433   -0.00210
C   4   6      1.15822    0.46108   -0.00108
S   5   16     -0.33329    1.34377    0.00166
H   6   1     -2.34565   -0.07839    0.00288
H   7   1     -0.82608   -2.26203   -0.00110
H   8   1      1.76454   -1.64273   -0.00381
I   9   53      3.00610    1.45099   -0.00248
[GTO]
    1 0
 s    5 1.00
         1238.401694             0.005517
          186.290050             0.041089
           42.251176             0.182254
           11.676558             0.468285
            3.593051             0.445758
 s    1 1.00
            0.402451             1.000000
 s    1 1.00
            0.130902             1.000000
 p    3 1.00
            9.468097             0.056888
            2.010355             0.312941
            0.547710             0.760650
 p    1 1.00
            0.152686             1.000000
 d    1 1.00
            0.800000             1.000000

    2 0
 s    5 1.00
         1238.401694             0.005517
          186.290050             0.041089
           42.251176             0.182254
           11.676558             0.468285
            3.593051             0.445758
 s    1 1.00
            0.402451             1.000000
 s    1 1.00
            0.130902             1.000000
 p    3 1.00
            9.468097             0.056888
            2.010355             0.312941
            0.547710             0.760650
 p    1 1.00
            0.152686             1.000000
 d    1 1.00
            0.800000             1.000000

    3 0
 s    5 1.00
         1238.401694             0.005517
          186.290050             0.041089
           42.251176             0.182254
           11.676558             0.468285
            3.593051             0.445758
 s    1 1.00
            0.402451             1.000000
 s    1 1.00
            0.130902             1.000000
 p    3 1.00
            9.468097             0.056888
            2.010355             0.312941
            0.547710             0.760650
 p    1 1.00
            0.152686             1.000000
 d    1 1.00
            0.800000             1.000000

    4 0
 s    5 1.00
         1238.401694             0.005517
          186.290050             0.041089
           42.251176             0.182254
           11.676558             0.468285
            3.593051             0.445758
 s    1 1.00
            0.402451             1.000000
 s    1 1.00
            0.130902             1.000000
 p    3 1.00
            9.468097             0.056888
            2.010355             0.312941
            0.547710             0.760650
 p    1 1.00
            0.152686             1.000000
 d    1 1.00
            0.800000             1.000000

    5 0
 s    5 1.00
         9184.930301            -0.005473
         1381.510550            -0.040954
          313.871476            -0.184758
           88.053871            -0.475673
           27.039915            -0.434952
 s    3 1.00
           45.648731            -0.091904
            4.966452             0.556988
            2.011624             0.511155
 s    1 1.00
            0.356611             1.000000
 s    1 1.00
            0.135072             1.000000
 p    5 1.00
          261.982334            -0.009183
           61.306895            -0.065902
           19.103730            -0.245878
            6.656772            -0.482315
            2.395964            -0.389563
 p    1 1.00
            0.617762             1.000000
 p    1 1.00
            0.169934             1.000000
 d    1 1.00
            0.550000             1.000000

    6 0
 s    3 1.00
           13.010701             0.033485
            1.962257             0.234722
            0.444538             0.813770
 s    1 1.00
            0.121950             1.000000
 p    1 1.00
            0.800000             1.000000

    7 0
 s    3 1.00
           13.010701             0.033485
            1.962257             0.234722
            0.444538             0.813770
 s    1 1.00
            0.121950             1.000000
 p    1 1.00
            0.800000             1.000000

    8 0
 s    3 1.00
           13.010701             0.033485
            1.962257             0.234722
            0.444538             0.813770
 s    1 1.00
            0.121950             1.000000
 p    1 1.00
            0.800000             1.000000

    9 0
 s    6 1.00
          445.904892             0.002203
           23.336842            -0.164769
           19.583446             0.400524
            8.511209            -0.830344
            2.199616             0.910349
            1.066897             0.463450
 s    2 1.00
           11.720548            -0.046973
            1.762599             1.025238
 s    1 1.00
            0.286975             1.000000
 s    1 1.00
            0.112276             1.000000
 p    4 1.00
           20.499027             0.084562
           10.558755            -0.420517
            1.501590             0.915705
            0.645972             0.183979
 p    1 1.00
            3.028866             1.000000
 p    1 1.00
            0.345066             1.000000
 p    1 1.00
            0.111345             1.000000
 d    5 1.00
           51.235355             0.004102
           15.616239            -0.005161
            4.526600             0.296352
            2.052981             0.519952
            0.876403             0.317507
 d    1 1.00
            0.309000             1.000000

[MO]
 Ene= 0.0
 Spin= alpha
 Occup= 2.0000
0000   -2.0200804105170605e-05
0001   0.00019264712123264838
0002   0.0005638312343753117
0003   -7.334307049262073e-05
0004   -0.000166357718258005
0005   -6.079095833056046e-08
0006   -8.365213414722609e-05
0007   0.00019171534476545516
0008   2.8489635775658204e-07
0009   -0.0001770610843319764
0010   -0.0003239361662243491
0011   -1.703012263248069e-05
0012   -0.00019784166051943383
0013   5.130681907841289e-08
0014   -7.895727733747485e-08
0015   6.5701235448063346e-06
0016   -0.00010047876543419598
0017   1.1359567947728382e-05
0018   -2.6385290787375413e-05
0019   -6.0952074356046855e-06
0020   2.8564074695230413e-08
0021   6.835218153261226e-05
0022   0.00020210798191717895
0023   1.0234700912160671e-07
0024   2.0540216545869293e-05
0025   7.170493410298586e-05
0026   -1.561169028366251e-05
0027   7.90911889940151e-06
0028   -4.652252050871946e-08
0029   8.479166082459172e-08
0030   5.592535225273966e-06
0031   -7.912741115425381e-05
0032   -0.00034233189644433676
0033   2.710501157679624e-05
0034   4.287535710454768e-06
0035   -3.026352200095257e-08
0036   -0.0002505912067544442
0037   -9.90949114012141e-05
0038   2.2848922136706753e-07
0039   3.109915828559179e-05
0040   4.325868296000923e-05
0041   -8.961917341602165e-06
0042   -2.8048118083730792e-05
0043   -8.598940365063341e-08
0044   9.245018773160144e-08
0045   -1.8177914852015042e-05
0046   0.0002015360783199538
0047   0.0007769998347058966
0048   0.00013946871471624846
0049   -9.399860522573089e-05
0050   -2.670648485478955e-07
0051   7.067891738170671e-05
0052   -9.930581359539673e-05
0053   -1.8074457914314317e-07
0054   -0.00033705574661280224
0055   -0.00013460263679819157
0056   -1.9563401239364015e-05
0057   0.00020262623823404685
0058   6.603723175353057e-07
0059   -3.8430022513705913e-07
0060   -0.9937398873433758
0061   0.028514701089276596
0062   -0.026388348104666923
0063   -0.0020199007153217942
0064   1.1243315166458175e-06
0065   9.646383643838113e-06
0066   7.642882812190409e-09
0067   6.029470611568855e-05
0068   -0.00021404400345721898
0069   -2.7771301026833943e-07
0070   -6.301809453771644e-05
0071   0.0004116826681834305
0072   4.6622803927078785e-07
0073   0.00973055881694491
0074   0.009728378629226542
0075   0.00962613397070034
0076   -4.537866417395286e-06
0077   -1.592641693322303e-07
0078   1.1632623313133311e-07
0079   -5.2168080158521455e-05
0080   -7.866428290927305e-05
0081   5.433740647699676e-05
0082   4.954120811561294e-06
0083   -6.378043697494912e-08
0084   2.5659240031660922e-05
0085   7.492983887110612e-05
0086   -1.2243413758341653e-05
0087   -1.8731404499665636e-05
0088   -1.9809866456257733e-09
0089   2.786609155540417e-05
0090   9.710970519925218e-05
0091   2.2607178980333388e-05
0092   5.644813913504389e-07
0093   -2.8333474596297667e-08
0094   4.2073451499209454e-05
0095   -1.682608064361884e-05
0096   -1.5256517497112942e-05
0097   0.00014151966645271327
0098   -2.81854945454844e-05
0099   -2.024681898402849e-06
0100   3.411899196514916e-08
0101   -5.726695144849211e-07
0102   -2.522510492213943e-08
0103   7.051430688428915e-10
0104   0.0001217090113569041
0105   8.134208985181186e-06
0106   -1.475715589417778e-07
0107   -8.663181761711563e-05
0108   7.804901695445151e-05
0109   1.8542663726316677e-07
0110   -5.195539892036502e-05
0111   -2.8145107825423502e-05
0112   -2.4999194486056517e-05
0113   8.705206266913011e-06
0114   4.785587727733547e-08
0115   -1.443619415160412e-08
0116   -4.188890037038732e-05
0117   -0.00010590227360477667
0118   -0.00010304039877565284
0119   -5.393069134903804e-05
0120   -1.4116612787601703e-07
0121   6.502915066341069e-08
 Ene= 0.0
 Spin= alpha
 Occup= 2.0000
0000   0.9921723732502669
0001   0.028180908176478607
0002   -0.021446463004269292
0003   -0.00017410790134995732
0004   -6.453117615844805e-05
0005   4.383826195567028e-08
0006   -0.0026585017849392574
0007   0.00029783412172469344
0008   3.7171540118414064e-06
0009   0.005012952573281629
0010   0.0034130168603136385
0011   0.0017060850511606757
0012   -0.0007719865071339174
0013   -5.5528259175830555e-06
0014   2.840921582222938e-06
0015   0.02512559243446437
0016   -0.0001951495700883881
0017   0.008983631848535598
0018   0.0009929230798338203
0019   -0.0011575574028454341
0020   -2.4044132872008373e-06
0021   0.0004956341282120257
0022   -2.74074653588142e-05
0023   -6.769562537373031e-07
0024   -0.0006976013801845186
0025   -0.0016259071532537025
0026   0.0001795265463358678
0027   0.0006393083577758888
0028   1.903431276261157e-06
0029   -2.8018302117624885e-06
0030   0.0006865898501624263
0031   -0.0005023718333556271
0032   -0.0013282981655295077
0033   -0.00015724478884454067
0034   -0.00014228076585045827
0035   4.9083022364918275e-08
0036   0.0008726625600574598
0037   0.0024155237065493656
0038   1.1765117870151153e-06
0039   0.0004021504352515081
0040   9.332052182062299e-05
0041   5.437916529448375e-07
0042   -0.0001354241278990295
0043   -7.201363431154963e-07
0044   2.73856508403071e-07
0045   -0.0006864381974415863
0046   -0.0005357955570434073
0047   -0.0009725700356010855
0048   7.712678492345011e-05
0049   5.502212718753602e-05
0050   -5.735841905922423e-08
0051   -0.0012336711553768266
0052   -0.00012090924294083815
0053   1.4314836019940301e-06
0054   0.00022503521501180028
0055   -5.7431497377221345e-05
0056   -5.2447448313813794e-05
0057   0.0001091442115755708
0058   -3.08161335320363e-07
0059   -1.4320020765481263e-07
0060   -1.0400317242991471e-05
0061   -0.0004314931715271144
0062   0.001354939526315256
0063   0.0043566080732067745
0064   8.043704495252941e-05
0065   0.00016512297116205995
0066   3.25170288434892e-08
0067   0.00017997718522977935
0068   0.0004716430204367551
0069   1.7697727257281788e-07
0070   -0.00035932073409137086
0071   -0.0008233620842846177
0072   -3.5007237007639123e-07
0073   -0.0010643487269207952
0074   -0.0020849960273323595
0075   -0.00015587984826753205
0076   -0.0010554219473251462
0077   3.5762359938582094e-07
0078   -7.281722776911973e-07
0079   -0.003514229263461472
0080   0.004315063227330928
0081   -0.002184520778826949
0082   -9.589364528605877e-05
0083   2.6306979182847288e-06
0084   -3.691293559220666e-05
0085   -0.001110077943260556
0086   -9.77791678902757e-05
0087   0.0005482277118648621
0088   6.409910651790031e-07
0089   0.00020017865265829394
0090   0.0004909335109869098
0091   -5.3660350330872044e-05
0092   -0.0002114197034580961
0093   -1.3400789267599642e-07
0094   -0.0002342723711390531
0095   8.471806078200589e-05
0096   -0.00018211707611152627
0097   -0.00025172520032208363
0098   5.444181440073442e-05
0099   2.3723352367609022e-05
0100   -4.953377740037221e-08
0101   1.3950430694198935e-05
0102   6.463936051551504e-06
0103   -1.5010205167266897e-08
0104   -0.0003077099058641711
0105   -0.00013862739160874286
0106   2.6857245494142565e-07
0107   -1.6927784646074197e-06
0108   -8.757967923432999e-05
0109   -7.737000680234408e-08
0110   0.00020263018330235136
0111   0.00019940388889358665
0112   0.00018687930648886116
0113   -1.0403861311157338e-05
0114   -3.3888841280938785e-08
0115   2.60365122493213e-08
0116   0.0003603903615241077
0117   0.0003033558812631914
0118   0.00031338953773874477
0119   0.00011217836110748058
0120   3.979244271346432e-08
0121   -1.5065883928111684e-07
 Ene= 0.0
 Spin= alpha
 Occup= 2.0000
0000   0.0005543463370762452
0001   -0.0004021468376525904
0002   -0.001919850020905862
0003   3.443889733040734e-05
0004   7.555967343288991e-05
0005   2.1089528742587208e-08
0006   0.0003619073272860996
0007   0.000547341139145538
0008   8.501745572729472e-08
0009   0.0002544021087025065
0010   -5.648593348408434e-05
0011   -1.5971885898195595e-05
0012   4.007694151523329e-05
0013   -3.6062802466240285e-07
0014   -9.776463769140914e-08
0015   0.005393510481716065
0016   -0.00025966246976482537
0017   0.0014015908348535952
0018   9.010357500158897e-05
0019   9.046815080346069e-08
0020   -1.192678017206497e-07
0021   -0.0011019920491420392
0022   0.0021822209506568682
0023   3.424032805133627e-06
0024   0.00015718601248423405
0025   0.00019007010517885453
0026   6.284618737141771e-05
0027   0.0001519611424895337
0028   5.928267782986644e-10
0029   -5.6358352173558805e-08
0030   0.09208614938837224
0031   0.0018969465319201438
0032   0.004972060009733549
0033   -0.00030920591508163954
0034   -0.0011784035244301622
0035   -7.068079680061281e-07
0036   0.0017539848333537748
0037   -0.001061752789986305
0038   -3.19078526188557e-06
0039   -9.116350768551501e-05
0040   -0.0014338126573595793
0041   0.0002391898392315527
0042   -0.0001384751962607289
0043   3.567534343556251e-07
0044   -1.6185719039100853e-06
0045   0.9885036718873007
0046   0.027444055323242417
0047   -0.020653611073809603
0048   -0.0007969098847974897
0049   -0.0017239296216800316
0050   -5.529121103848664e-07
0051   -0.0012541062840590368
0052   -0.0005953415694258824
0053   9.346719961771563e-07
0054   0.0023168463103279352
0055   0.003524442771139641
0056   0.0016292509218692724
0057   5.122415687923451e-05
0058   -9.703315549999018e-07
0059   1.980786651114871e-06
0060   -2.697600133675332e-06
0061   -0.0004220398321629904
0062   0.0013047811747608177
0063   0.004031559144807201
0064   -0.0005795769485774744
0065   0.00035990939321457104
0066   1.083928924252956e-06
0067   -0.0011826474019793823
0068   0.0007884920737363431
0069   2.260461328217043e-06
0070   7.968973396196512e-06
0071   0.00020803750484130117
0072   2.089581285490955e-07
0073   -0.0020884365947237667
0074   -0.0010554144781011248
0075   -9.028416030840824e-05
0076   0.001272933257778465
0077   4.159789080433247e-06
0078   -2.6815795406169146e-06
0079   4.246566300084269e-05
0080   0.00020493722987245875
0081   -8.94933732386942e-05
0082   -2.0134657857186695e-05
0083   9.17698847032135e-08
0084   0.00022206763284598002
0085   0.0003849855568110985
0086   0.00012930703431063373
0087   -0.0001237208794475226
0088   -2.780837819220225e-07
0089   -0.0005614050603529427
0090   -0.0015921159585904302
0091   1.8872032897363265e-05
0092   0.0003356863640268431
0093   2.851266105030903e-07
0094   0.001178952790484691
0095   -0.0007339933958359034
0096   0.0014071292465275122
0097   0.008291164709818201
0098   -0.0005445647440975702
0099   -0.00024146777867298905
0100   4.545296427363926e-07
0101   -0.00036301511456950905
0102   -0.00013882726895384764
0103   3.219121090734984e-07
0104   0.0011830681826426213
0105   0.000504250889824625
0106   -1.0040954787727828e-06
0107   -0.0025542962762944927
0108   -0.0015061358921724549
0109   1.8275765978366075e-06
0110   -0.0008809559702380154
0111   -0.001189649139718218
0112   -0.0012853428225130204
0113   0.00016608663246599567
0114   -4.288414262691373e-07
0115   -1.036788008416775e-07
0116   -0.0022369543929845236
0117   -0.0018326670632452062
0118   -0.001630622591563245
0119   -0.00014111278414584896
0120   7.36209183003187e-07
0121   -4.876226631125907e-08
 Ene= 0.0
 Spin= alpha
 Occup= 2.0000
0000   0.005820923329513665
0001   0.0008519071941223135
0002   -0.0021471874635648936
0003   0.00015883587326965154
0004   -7.946356785020798e-05
0005   -2.7383885445689804e-07
0006   -0.002420806814113376
0007   -0.0014531103306521882
0008   1.6912353062732536e-06
0009   -0.00013645583192096808
0010   0.0001393002921499588
0011   -8.713323710237767e-07
0012   -1.893436107121349e-05
0013   1.8301890338610612e-07
0014   1.8081252562611134e-07
0015   -0.20234709335032025
0016   -0.005334871341233575
0017   -0.0022365896278089153
0018   0.0013297020844455472
0019   0.00021414233545505489
0020   -1.4949516035594765e-06
0021   0.00036719195535762987
0022   0.0010602785109226822
0023   5.438246847533399e-07
0024   0.001094588983556283
0025   -0.00028659813433646274
0026   -0.0004617509947454492
0027   0.0005209744370497484
0028   -1.79159233195119e-06
0029   -4.733682331271666e-07
0030   -0.9672997053724837
0031   -0.027652217404331648
0032   0.022357945499124614
0033   -0.00047250550231474103
0034   -0.00034402015325230603
0035   2.814588436477724e-07
0036   -0.0014544771419983853
0037   0.0021772069419587186
0038   3.8805726776759345e-06
0039   -0.004253898895689646
0040   -0.004674428325095974
0041   -0.0017017740254053892
0042   0.0007212546555524342
0043   4.414834301696272e-06
0044   -4.112007363697079e-06
0045   0.09167772823849868
0046   0.003419961885748426
0047   -0.011326386463697054
0048   -0.000338867288682261
0049   -0.0018114027475689568
0050   -1.2516174080520852e-06
0051   0.0009775152894439454
0052   8.185859686149764e-06
0053   -1.2612799193086798e-06
0054   0.0003619591066795627
0055   0.0021892990323098167
0056   1.9195612565639846e-05
0057   0.0003422746517564409
0058   -1.8655349710963795e-07
0059   1.8962755852854918e-06
0060   -5.191900892344509e-06
0061   -0.0001295156970585367
0062   0.0002087482462073624
0063   0.004225858845799405
0064   -0.00011201974202584866
0065   8.244011027713785e-05
0066   2.2360823292162068e-07
0067   -0.00027973434774864256
0068   0.00018075353395232083
0069   5.334191725392475e-07
0070   0.0006321149643950294
0071   -0.0010061666553065223
0072   -1.7435615409464858e-06
0073   -8.653071667965987e-05
0074   -0.000505951728731387
0075   -0.00016283252076730286
0076   0.00035569313555789295
0077   2.173607321913692e-07
0078   -8.294717308547196e-07
0079   -0.0003902621557246412
0080   -0.0005554372866274541
0081   6.526625060195889e-06
0082   0.00018815653880016906
0083   1.669653807512542e-07
0084   0.0007573137488126341
0085   0.00026199579476074685
0086   -0.00020996377394551713
0087   4.8069870335613004e-05
0088   3.094385211908722e-07
0089   0.0033448406264446327
0090   -0.004481898428492373
0091   -0.0015855019396039064
0092   0.0014722830224461086
0093   3.385873096552307e-06
0094   0.00016509407889963988
0095   -0.00010556058924566077
0096   0.00019965113482668266
0097   0.001773402997148363
0098   -5.113353971309017e-05
0099   -3.510220912064817e-05
0100   2.9176949631328146e-08
0101   -5.959424903906115e-05
0102   -2.8315281998833138e-05
0103   4.7682231482383696e-08
0104   1.0686537058914936e-05
0105   -6.168700795198027e-05
0106   -6.124050904855642e-08
0107   -0.0008591081282768214
0108   3.422962578888211e-05
0109   1.1024115422068636e-06
0110   -0.00019489310417808998
0111   -9.240015550159676e-05
0112   -0.00020038366935472168
0113   7.524525052401714e-05
0114   6.218867966880254e-08
0115   2.170351219276879e-08
0116   0.00014572338141709992
0117   -0.0005576519705073108
0118   -0.00018452419598013746
0119   -0.00011907742937990126
0120   -5.908418613857386e-07
0121   -2.5259422696228554e-07
 Ene= 0.0
 Spin= alpha
 Occup= 2.0000
0000   -0.024745949654379817
0001   -0.0015183377744015817
0002   0.011343971842233722
0003   -0.0007435507084571192
0004   0.0014561349583051574
0005   2.354791972381346e-06
0006   0.0010979962717586104
0007   -0.0015381067213154906
0008   -2.886513800122693e-06
0009   -0.001373534143282345
0010   -0.0013666675363209573
0011   0.00011680206124466304
0012   0.0009992721087349096
0013   3.1404098104277083e-06
0014   -2.901515336477051e-06
0015   0.9713267487114537
0016   0.02795692113823231
0017   -0.02704012717692741
0018   6.72739889573938e-05
0019   0.0001454883975332411
0020   9.64847182924758e-08
0021   6.869911968402639e-05
0022   -0.003525185004649968
0023   -3.4358680341153327e-06
0024   0.004607812138201436
0025   0.005343688472555462
0026   0.0016968278022504702
0027   0.00048153651264923683
0028   -3.832242051393296e-06
0029   3.3629356154484884e-06
0030   -0.20233729470692488
0031   -0.00630849926698954
0032   0.013709807142931893
0033   0.0011736900298640182
0034   0.0003237471225626734
0035   -1.175464040485876e-06
0036   0.0005263637910225735
0037   0.000905503660343129
0038   2.0553449333597846e-07
0039   -0.0030965848894565773
0040   -0.0015737084785166144
0041   -0.00024460517066601724
0042   -4.809067116420531e-05
0043   4.133572104610021e-06
0044   -1.3730079532169687e-06
0045   0.013738621116673254
0046   4.4064925347227354e-05
0047   -0.0028721546905232883
0048   2.710727313118705e-05
0049   -0.0006029136901173129
0050   -5.848721429656623e-07
0051   -0.0030218481073574594
0052   0.00122720757166612
0053   4.958350585837027e-06
0054   0.0003340630731192432
0055   0.0007322467959653627
0056   1.2019642620690759e-05
0057   0.00025497020570607856
0058   -2.3795135789435928e-07
0059   4.5183505294429017e-07
0060   2.722809206451859e-06
0061   5.707161368985991e-05
0062   -9.898012762996937e-05
0063   -0.0026036328609724303
0064   -2.7993047224450497e-05
0065   -3.082118443208837e-05
0066   8.080778441207516e-09
0067   -0.00015351225405607472
0068   -0.00010205559937655538
0069   1.0211367620090278e-07
0070   -1.7277392856358336e-05
0071   0.0009159188521987061
0072   8.940193701207997e-07
0073   -0.00012809860073423646
0074   0.0003623329575792214
0075   9.40280035795818e-05
0076   0.0001143224919970875
0077   4.3918880249265697e-07
0078   1.4198912668333011e-07
0079   0.0001730484526914591
0080   -0.001358616241561105
0081   0.0005438212116094334
0082   -0.00013484076634992615
0083   -8.071157349000147e-07
0084   -0.003407008178967083
0085   0.004862877071474045
0086   -0.0009195359981221979
0087   -0.0021512995257778823
0088   -8.450705857867025e-07
0089   0.0006063586054475059
0090   -0.0023858258736566057
0091   -0.000867961889725792
0092   0.00044742393687766796
0093   1.5168465515184445e-06
0094   -0.00022766743702774228
0095   7.793085136059398e-05
0096   -0.00018741363822613857
0097   0.0003588164089369673
0098   4.487896588945382e-05
0099   6.371328326152611e-05
0100   2.6406179537618575e-09
0101   -3.077800948868529e-06
0102   8.684424388657576e-06
0103   1.1612225445417514e-08
0104   -0.00035062183863762914
0105   -0.0003667973915024113
0106   1.0045071392119782e-07
0107   -0.00032866963235414926
0108   -0.0001596633771914694
0109   2.581824800720957e-07
0110   0.00019852827271216126
0111   0.00018808583603776902
0112   0.0001718500966404159
0113   -8.624268835565021e-06
0114   -4.701106372497973e-08
0115   2.7534125004473062e-08
0116   0.0004168786252489067
0117   0.0003592163785004851
0118   0.00029620973999849604
0119   0.00023789318823886648
0120   4.919972296941035e-08
0121   -2.2734298606938685e-07
 Ene= 0.0
 Spin= alpha
 Occup= 2.0000
0000   0.00016248449340438857
0001   -0.00013433011417218163
0002   -0.0023992329254867296
0003   0.0002076770095338848
0004   0.0003471642556388446
0005   5.596409017571178e-08
0006   0.00026680345412665346
0007   -0.000498895367571252
0008   -8.068612129335161e-07
0009   0.0003707573384888038
0010   0.0006714151411700796
0011   4.4836438321007845e-06
0012   0.00031020474837204116
0013   -2.5080133980263183e-07
0014   3.2481408424178804e-07
0015   -6.723663157763744e-05
0016   0.00033996277473411217
0017   0.00012974674856163003
0018   7.91079600229622e-05
0019   7.07714526636575e-05
0020   -4.109197123856834e-08
0021   -0.0004054590119562644
0022   -0.0006146260901917375
0023   -5.588931492086223e-08
0024   -3.249637596951258e-05
0025   -0.00015072093295236705
0026   3.288503519194907e-05
0027   6.086569964293362e-06
0028   1.0343127467227242e-07
0029   -2.0775663392713266e-07
0030   -0.00010516221481270333
0031   0.0003635249548436319
0032   0.0019698034221981384
0033   -5.147910866159566e-06
0034   0.00020764175928042472
0035   1.942655999054107e-07
0036   0.0007328282754749341
0037   0.0008138596577032436
0038   -1.9002130283224504e-07
0039   -2.0343771100587555e-05
0040   -7.303274837195071e-05
0041   1.0680646729456429e-05
0042   9.124019615365609e-05
0043   1.3292581638153061e-07
0044   -2.0814489100557193e-07
0045   0.0006276160427231822
0046   -0.0010374688410112627
0047   -0.003797251270081391
0048   0.0006448062328299754
0049   -0.0007450885039289039
0050   -1.5235254898135715e-06
0051   0.00042619312932751994
0052   0.0004405565567145442
0053   -1.358753872158811e-07
0054   0.0005285939165749158
0055   0.0002138544270378314
0056   -1.8107062598576484e-05
0057   -0.0003092921379542759
0058   -1.0998044896631524e-06
0059   6.478438107843797e-07
0060   -0.3076077449725374
0061   -1.0292889594415437
0062   -0.028059256923468546
0063   0.012824903119909066
0064   0.0004748673910524927
0065   -0.005213601479564072
0066   -5.491851606130887e-06
0067   -0.0014849806637419847
0068   0.0024614431967644396
0069   4.20922805993686e-06
0070   -0.000658536955598255
0071   -0.0012562814580086878
0072   -3.3318708179806675e-07
0073   -0.0019642462036225344
0074   -0.001634782094759516
0075   -0.0011743700884069418
0076   0.0001921001628284167
0077   1.349841493480093e-06
0078   -7.43870002937757e-07
0079   -1.4270771988095906e-05
0080   0.00013126125425059888
0081   -0.0001778128175881892
0082   -7.494241282286704e-05
0083   1.547627043563198e-07
0084   -0.0001532088363656915
0085   -0.0002552806040195628
0086   3.780907935972958e-05
0087   2.937684245584703e-05
0088   -2.1572975057106124e-08
0089   -0.00021793076307732075
0090   -0.00037391437564564224
0091   -5.22870978464885e-05
0092   -2.5510127162825054e-05
0093   4.407393294753353e-08
0094   -0.00020880714979476202
0095   -8.466489653421035e-06
0096   0.00023074465998767043
0097   -0.0005480659559326358
0098   2.0290655555338282e-05
0099   6.101400931850261e-05
0100   3.1165035092517606e-08
0101   -7.902917147150782e-06
0102   6.970401609149453e-05
0103   7.5578707955739e-08
0104   -0.0002517077192185325
0105   -0.0001819781480595476
0106   1.5080997099688314e-07
0107   0.0003669931584169088
0108   -0.00036451468616560895
0109   -8.161232111039336e-07
0110   0.00024038105776098102
0111   4.889340521942766e-05
0112   7.373335439687471e-05
0113   -3.1985091130165405e-05
0114   -2.7453630959135036e-07
0115   1.3093339196049775e-08
0116   7.864629991837755e-06
0117   0.0004247765558089698
0118   0.00035420371891142836
0119   0.00018725435143009827
0120   6.86014265056051e-07
0121   -1.5908004891374495e-07
 Ene= 0.0
 Spin= alpha
 Occup= 2.0000
0000   7.342408869897227e-06
0001   -3.533254631464065e-05
0002   -1.5569481715779417e-05
0003   -2.2946305602510034e-05
0004   -1.708664348990864e-05
0005   1.4352477707256111e-08
0006   7.658033003097957e-05
0007   -8.935291850951416e-05
0008   -1.8003845046051403e-07
0009   -6.183062580485774e-06
0010   -6.942513670338335e-06
0011   -7.988046059133e-06
0012   -3.233172563502784e-06
0013   -5.9816669688341944e-09
0014   5.420756484347918e-09
0015   8.740757330182e-06
0016   -4.621130987085975e-05
0017   -0.000397188956110365
0018   -2.6141170964054626e-05
0019   -1.1699212145867757e-05
0020   2.339526137850619e-08
0021   -0.00010097329314703384
0022   -1.3804380174292253e-05
0023   1.1497510649586825e-07
0024   -7.332720703920013e-06
0025   -5.299944182420039e-06
0026   -9.21316943270627e-06
0027   1.6541338599534888e-06
0028   -1.1603707175943192e-09
0029   1.942730242216805e-09
0030   -2.4715802987528388e-05
0031   6.563300545168282e-05
0032   0.00041875309885324797
0033   2.7824216819116504e-05
0034   5.8881878440733085e-05
0035   2.033036863032666e-08
0036   -0.0003265932604206306
0037   9.218813928154224e-05
0038   4.987043702788415e-07
0039   5.820454292539473e-07
0040   4.922973318633347e-06
0041   3.586369205529461e-06
0042   -1.8978322972009587e-05
0043   -1.3372320904114231e-08
0044   2.5160143152564214e-08
0045   0.00015464777591263346
0046   -0.00024206473879074617
0047   -0.0003514712009310971
0048   -0.00031476795681734376
0049   -0.00019177634693218958
0050   2.1935306288143416e-07
0051   0.00031296868965817513
0052   0.00010453211778625157
0053   -2.975281329929074e-07
0054   8.680454099883755e-06
0055   4.758087442215647e-06
0056   -5.013621839307003e-06
0057   -2.1881651843467978e-07
0058   -1.9692788557671102e-08
0059   1.0947494303531093e-08
0060   -6.811614680615337e-06
0061   -3.9749002044414695e-05
0062   6.402840919612484e-05
0063   0.00019972229936886073
0064   1.0393888209486953e-05
0065   -7.110135339946771e-07
0066   -1.3501624088287218e-08
0067   5.1847938555162943e-05
0068   3.3689328809626486e-06
0069   -6.189087014869197e-08
0070   4.740504288791243e-06
0071   -0.00013952986740059785
0072   -1.3917995342644217e-07
0073   -1.8526182693051065e-05
0074   3.922244246170718e-05
0075   1.1609383609408845e-05
0076   -3.262017168209866e-05
0077   1.285673481773113e-08
0078   7.215348580297499e-08
0079   2.7409593551046788e-05
0080   4.842360627103156e-05
0081   4.223766437440772e-06