[Molden Format]
[Title]
Written by TeraChem
[Atoms] Angs
C   1   6     -1.25495   -0.11899    0.00147
C   2   6     -0.43742   -1.24027   -0.00064
C   3   6      0.95042   -0.91433   -0.00210
C   4   6      1.15822    0.46108   -0.00108
S   5   16     -0.33329    1.34377    0.00166
H   6   1     -2.34565   -0.07839    0.00288
H   7   1     -0.82608   -2.26203   -0.00110
H   8   1      1.76454   -1.64273   -0.00381
I   9   53      3.00610    1.45099   -0.00248
[GTO]
    1 0
 s    5 1.00
         1238.401694             0.005517
          186.290050             0.041089
           42.251176             0.182254
           11.676558             0.468285
            3.593051             0.445758
 s    1 1.00
            0.402451             1.000000
 s    1 1.00
            0.130902             1.000000
 p    3 1.00
            9.468097             0.056888
            2.010355             0.312941
            0.547710             0.760650
 p    1 1.00
            0.152686             1.000000
 d    1 1.00
            0.800000             1.000000

    2 0
 s    5 1.00
         1238.401694             0.005517
          186.290050             0.041089
           42.251176             0.182254
           11.676558             0.468285
            3.593051             0.445758
 s    1 1.00
            0.402451             1.000000
 s    1 1.00
            0.130902             1.000000
 p    3 1.00
            9.468097             0.056888
            2.010355             0.312941
            0.547710             0.760650
 p    1 1.00
            0.152686             1.000000
 d    1 1.00
            0.800000             1.000000

    3 0
 s    5 1.00
         1238.401694             0.005517
          186.290050             0.041089
           42.251176             0.182254
           11.676558             0.468285
            3.593051             0.445758
 s    1 1.00
            0.402451             1.000000
 s    1 1.00
            0.130902             1.000000
 p    3 1.00
            9.468097             0.056888
            2.010355             0.312941
            0.547710             0.760650
 p    1 1.00
            0.152686             1.000000
 d    1 1.00
            0.800000             1.000000

    4 0
 s    5 1.00
         1238.401694             0.005517
          186.290050             0.041089
           42.251176             0.182254
           11.676558             0.468285
            3.593051             0.445758
 s    1 1.00
            0.402451             1.000000
 s    1 1.00
            0.130902             1.000000
 p    3 1.00
            9.468097             0.056888
            2.010355             0.312941
            0.547710             0.760650
 p    1 1.00
            0.152686             1.000000
 d    1 1.00
            0.800000             1.000000

    5 0
 s    5 1.00
         9184.930301            -0.005473
         1381.510550            -0.040954
          313.871476            -0.184758
           88.053871            -0.475673
           27.039915            -0.434952
 s    3 1.00
           45.648731            -0.091904
            4.966452             0.556988
            2.011624             0.511155
 s    1 1.00
            0.356611             1.000000
 s    1 1.00
            0.135072             1.000000
 p    5 1.00
          261.982334            -0.009183
           61.306895            -0.065902
           19.103730            -0.245878
            6.656772            -0.482315
            2.395964            -0.389563
 p    1 1.00
            0.617762             1.000000
 p    1 1.00
            0.169934             1.000000
 d    1 1.00
            0.550000             1.000000

    6 0
 s    3 1.00
           13.010701             0.033485
            1.962257             0.234722
            0.444538             0.813770
 s    1 1.00
            0.121950             1.000000
 p    1 1.00
            0.800000             1.000000

    7 0
 s    3 1.00
           13.010701             0.033485
            1.962257             0.234722
            0.444538             0.813770
 s    1 1.00
            0.121950             1.000000
 p    1 1.00
            0.800000             1.000000

    8 0
 s    3 1.00
           13.010701             0.033485
            1.962257             0.234722
            0.444538             0.813770
 s    1 1.00
            0.121950             1.000000
 p    1 1.00
            0.800000             1.000000

    9 0
 s    6 1.00
          445.904892             0.002203
           23.336842            -0.164769
           19.583446             0.400524
            8.511209            -0.830344
            2.199616             0.910349
            1.066897             0.463450
 s    2 1.00
           11.720548            -0.046973
            1.762599             1.025238
 s    1 1.00
            0.286975             1.000000
 s    1 1.00
            0.112276             1.000000
 p    4 1.00
           20.499027             0.084562
           10.558755            -0.420517
            1.501590             0.915705
            0.645972             0.183979
 p    1 1.00
            3.028866             1.000000
 p    1 1.00
            0.345066             1.000000
 p    1 1.00
            0.111345             1.000000
 d    5 1.00
           51.235355             0.004102
           15.616239            -0.005161
            4.526600             0.296352
            2.052981             0.519952
            0.876403             0.317507
 d    1 1.00
            0.309000             1.000000

[MO]
 Ene= 0.0
 Spin= Alpha
 Occup=     2.0000
    1   -0.00030
    2    0.00126
    3   -0.00249
    4    0.00019
    5   -0.00023
    6   -0.00000
    7   -0.00369
    8    0.00307
    9    0.00001
   10   -0.00033
   11   -0.00112
   12    0.00010
   13   -0.00064
   14    0.00000
   15   -0.00000
   16   -0.00007
   17    0.00008
   18    0.00860
   19   -0.00002
   20    0.00014
   21    0.00000
   22    0.00065
   23    0.00363
   24    0.00000
   25    0.00019
   26    0.00007
   27   -0.00005
   28   -0.00002
   29   -0.00000
   30    0.00000
   31   -0.00010
   32    0.00034
   33   -0.00785
   34    0.00004
   35    0.00028
   36    0.00000
   37    0.00274
   38   -0.00272
   39   -0.00001
   40   -0.00008
   41   -0.00006
   42    0.00007
   43   -0.00004
   44    0.00000
   45   -0.00000
   46    0.00077
   47   -0.00219
   48    0.00368
   49    0.00109
   50   -0.00078
   51   -0.00000
   52   -0.00209
   53   -0.00398
   54   -0.00000
   55    0.00075
   56    0.00047
   57   -0.00014
   58   -0.00065
   59   -0.00000
   60    0.00000
   61   -0.00013
   62   -0.00047
   63    0.00017
   64   -0.00051
   65    0.94840
   66    0.26119
   67   -0.00097
   68   -0.04362
   69   -0.01071
   70    0.00005
   71    0.00624
   72    0.00353
   73   -0.00000
   74   -0.00081
   75    0.00047
   76    0.00005
   77    0.00142
   78    0.00000
   79   -0.00000
   80   -0.00096
   81   -0.00100
   82    0.00011
   83   -0.00003
   84   -0.00000
   85    0.00018
   86    0.00019
   87    0.00001
   88   -0.00005
   89   -0.00000
   90   -0.00045
   91   -0.00056
   92   -0.00000
   93    0.00003
   94    0.00000
   95   -0.00032
   96    0.00006
   97    0.00050
   98   -0.00116
   99    0.00014
  100    0.00010
  101   -0.00000
  102    0.00007
  103    0.00011
  104    0.00000
  105   -0.00096
  106   -0.00035
  107    0.00000
  108    0.00045
  109   -0.00045
  110   -0.00000
  111    0.00034
  112    0.00013
  113    0.00014
  114   -0.00004
  115   -0.00000
  116    0.00000
  117    0.00053
  118    0.00072
  119    0.00071
  120    0.00027
  121    0.00000
  122   -0.00000
 Ene= 0.0
 Spin= Alpha
 Occup=     2.0000
    1    0.00001
    2   -0.00004
    3   -0.00002
    4   -0.00002
    5   -0.00002
    6    0.00000
    7    0.00008
    8   -0.00009
    9   -0.00000
   10   -0.00001
   11   -0.00001
   12   -0.00001
   13   -0.00000
   14   -0.00000
   15    0.00000
   16    0.00001
   17   -0.00005
   18   -0.00040
   19   -0.00003
   20   -0.00001
   21    0.00000
   22   -0.00010
   23   -0.00001
   24    0.00000
   25   -0.00001
   26   -0.00001
   27   -0.00001
   28    0.00000
   29   -0.00000
   30    0.00000
   31   -0.00002
   32    0.00007
   33    0.00042
   34    0.00003
   35    0.00006
   36    0.00000
   37   -0.00033
   38    0.00009
   39    0.00000
   40    0.00000
   41    0.00000
   42    0.00000
   43   -0.00002
   44   -0.00000
   45    0.00000
   46    0.00015
   47   -0.00024
   48   -0.00035
   49   -0.00031
   50   -0.00019
   51    0.00000
   52    0.00031
   53    0.00010
   54   -0.00000
   55    0.00001
   56    0.00000
   57   -0.00001
   58   -0.00000
   59   -0.00000
   60    0.00000
   61   -0.00001
   62   -0.00004
   63    0.00006
   64    0.00020
   65    0.00001
   66   -0.00000
   67   -0.00000
   68    0.00005
   69    0.00000
   70   -0.00000
   71    0.00000
   72   -0.00014
   73   -0.00000
   74   -0.00002
   75    0.00004
   76    0.00001
   77   -0.00003
   78    0.00000
   79    0.00000
   80    0.00003
   81    0.00005
   82    0.00000
   83    0.00000
   84   -0.00000
   85    0.00002
   86    0.00005
   87    0.00000
   88    0.00000
   89   -0.00000
   90    0.00007
   91    0.00003
   92    0.00001
   93   -0.00000
   94   -0.00000
   95   -0.91345
   96   -0.08510
   97   -0.01238
   98    0.00133
   99    0.00182
  100    0.00095
  101   -0.00000
  102    0.00150
  103    0.00078
  104   -0.00000
  105    0.00059
  106    0.00032
  107   -0.00000
  108    0.00026
  109    0.00013
  110   -0.00000
  111   -0.00069
  112    0.00011
  113    0.00027
  114   -0.00064
  115    0.00000
  116    0.00000
  117    0.00010
  118    0.00022
  119    0.00027
  120   -0.00011
  121    0.00000
  122    0.00000
 Ene= 0.0
 Spin= Alpha
 Occup=     2.0000
    1    0.00016
    2   -0.00013
    3   -0.00240
    4    0.00021
    5    0.00035
    6    0.00000
    7    0.00027
    8   -0.00050
    9   -0.00000
   10    0.00037
   11    0.00067
   12    0.00000
   13    0.00031
   14   -0.00000
   15    0.00000
   16   -0.00007
   17    0.00034
   18    0.00013
   19    0.00008
   20    0.00007
   21   -0.00000
   22   -0.00041
   23   -0.00061
   24   -0.00000
   25   -0.00003
   26   -0.00015
   27    0.00003
   28    0.00001
   29    0.00000
   30   -0.00000
   31   -0.00011
   32    0.00036
   33    0.00197
   34   -0.00001
   35    0.00021
   36    0.00000
   37    0.00073
   38    0.00081
   39   -0.00000
   40   -0.00002
   41   -0.00007
   42    0.00001
   43    0.00009
   44    0.00000
   45   -0.00000
   46    0.00063
   47   -0.00104
   48   -0.00380
   49    0.00064
   50   -0.00075
   51   -0.00000
   52    0.00043
   53    0.00044
   54   -0.00000
   55    0.00053
   56    0.00021
   57   -0.00002
   58   -0.00031
   59   -0.00000
   60    0.00000
   61   -0.30761
   62   -1.02929
   63   -0.02806
   64    0.01282
   65    0.00047
   66   -0.00521
   67   -0.00001
   68   -0.00148
   69    0.00246
   70    0.00000
   71   -0.00066
   72   -0.00126
   73   -0.00000
   74   -0.00196
   75   -0.00163
   76   -0.00117
   77    0.00019
   78    0.00000
   79   -0.00000
   80   -0.00001
   81    0.00013
   82   -0.00018
   83   -0.00007
   84    0.00000
   85   -0.00015
   86   -0.00026
   87    0.00004
   88    0.00003
   89   -0.00000
   90   -0.00022
   91   -0.00037
   92   -0.00005
   93   -0.00003
   94    0.00000
   95   -0.00021
   96   -0.00001
   97    0.00023
   98   -0.00055
   99    0.00002
  100    0.00006
  101    0.00000
  102   -0.00001
  103    0.00007
  104    0.00000
  105   -0.00025
  106   -0.00018
  107    0.00000
  108    0.00037
  109   -0.00036
  110   -0.00000
  111    0.00024
  112    0.00005
  113    0.00007
  114   -0.00003
  115   -0.00000
  116    0.00000
  117    0.00001
  118    0.00042
  119    0.00035
  120    0.00019
  121    0.00000
  122   -0.00000
 Ene= 0.0
 Spin= Alpha
 Occup=     2.0000
    1   -0.02475
    2   -0.00152
    3    0.01134
    4   -0.00074
    5    0.00146
    6    0.00000
    7    0.00110
    8   -0.00154
    9   -0.00000
   10   -0.00137
   11   -0.00137
   12    0.00012
   13    0.00100
   14    0.00000
   15   -0.00000
   16    0.97133
   17    0.02796
   18   -0.02704
   19    0.00007
   20    0.00015
   21    0.00000
   22    0.00007
   23   -0.00353
   24   -0.00000
   25    0.00461
   26    0.00534
   27    0.00170
   28    0.00048
   29   -0.00000
   30    0.00000
   31   -0.20234
   32   -0.00631
   33    0.01371
   34    0.00117
   35    0.00032
   36   -0.00000
   37    0.00053
   38    0.00091
   39    0.00000
   40   -0.00310
   41   -0.00157
   42   -0.00024
   43   -0.00005
   44    0.00000
   45   -0.00000
   46    0.01374
   47    0.00004
   48   -0.00287
   49    0.00003
   50   -0.00060
   51   -0.00000
   52   -0.00302
   53    0.00123
   54    0.00000
   55    0.00033
   56    0.00073
   57    0.00001
   58    0.00025
   59   -0.00000
   60    0.00000
   61    0.00000
   62    0.00006
   63   -0.00010
   64   -0.00260
   65   -0.00003
   66   -0.00003
   67    0.00000
   68   -0.00015
   69   -0.00010
   70    0.00000
   71   -0.00002
   72    0.00092
   73    0.00000
   74   -0.00013
   75    0.00036
   76    0.00009
   77    0.00011
   78    0.00000
   79    0.00000
   80    0.00017
   81   -0.00136
   82    0.00054
   83   -0.00013
   84   -0.00000
   85   -0.00341
   86    0.00486
   87   -0.00092
   88   -0.00215
   89   -0.00000
   90    0.00061
   91   -0.00239
   92   -0.00087
   93    0.00045
   94    0.00000
   95   -0.00023
   96    0.00008
   97   -0.00019
   98    0.00036
   99    0.00004
  100    0.00006
  101    0.00000
  102   -0.00000
  103    0.00001
  104    0.00000
  105   -0.00035
  106   -0.00037
  107    0.00000
  108   -0.00033
  109   -0.00016
  110    0.00000
  111    0.00020
  112    0.00019
  113    0.00017
  114   -0.00001
  115   -0.00000
  116    0.00000
  117    0.00042
  118    0.00036
  119    0.00030
  120    0.00024
  121    0.00000
  122   -0.00000
 Ene= 0.0
 Spin= Alpha
 Occup=     2.0000
    1    0.00582
    2    0.00085
    3   -0.00215
    4    0.00016
    5   -0.00008
    6   -0.00000
    7   -0.00242
    8   -0.00145
    9    0.00000
   10   -0.00014
   11    0.00014
   12   -0.00000
   13   -0.00002
   14    0.00000
   15    0.00000
   16   -0.20235
   17   -0.00533
   18   -0.00224
   19    0.00133
   20    0.00021
   21   -0.00000
   22    0.00037
   23    0.00106
   24    0.00000
   25    0.00109
   26   -0.00029
   27   -0.00046
   28    0.00052
   29   -0.00000
   30   -0.00000
   31   -0.96730
   32   -0.02765
   33    0.02236
   34   -0.00047
   35   -0.00034
   36    0.00000
   37   -0.00145
   38    0.00218
   39    0.00000
   40   -0.00425
   41   -0.00467
   42   -0.00170
   43    0.00072
   44    0.00000
   45   -0.00000
   46    0.09168
   47    0.00342
   48   -0.01133
   49   -0.00034
   50   -0.00181
   51   -0.00000
   52    0.00098
   53    0.00001
   54   -0.00000
   55    0.00036
   56    0.00219
   57    0.00002
   58    0.00034
   59   -0.00000
   60    0.00000
   61   -0.00001
   62   -0.00013
   63    0.00021
   64    0.00423
   65   -0.00011
   66    0.00008
   67    0.00000
   68   -0.00028
   69    0.00018
   70    0.00000
   71    0.00063
   72   -0.00101
   73   -0.00000
   74   -0.00009
   75   -0.00051
   76   -0.00016
   77    0.00036
   78    0.00000
   79   -0.00000
   80   -0.00039
   81   -0.00056
   82    0.00001
   83    0.00019
   84    0.00000
   85    0.00076
   86    0.00026
   87   -0.00021
   88    0.00005
   89    0.00000
   90    0.00334
   91   -0.00448
   92   -0.00159
   93    0.00147
   94    0.00000
   95    0.00017
   96   -0.00011
   97    0.00020
   98    0.00177
   99   -0.00005
  100   -0.00004
  101    0.00000
  102   -0.00006
  103   -0.00003
  104    0.00000
  105    0.00001
  106   -0.00006
  107   -0.00000
  108   -0.00086
  109    0.00003
  110    0.00000
  111   -0.00019
  112   -0.00009
  113   -0.00020
  114    0.00008
  115    0.00000
  116    0.00000
  117    0.00015
  118   -0.00056
  119   -0.00018
  120   -0.00012
  121   -0.00000
  122   -0.00000
 Ene= 0.0
 Spin= Alpha
 Occup=     2.0000
    1    0.00055
    2   -0.00040
    3   -0.00192
    4    0.00003
    5    0.00008
    6    0.00000
    7    0.00036
    8    0.00055
    9    0.00000
   10    0.00025
   11   -0.00006
   12   -0.00002
   13    0.00004
   14   -0.00000
   15   -0.00000
   16    0.00539
   17   -0.00026
   18    0.00140
   19    0.00009
   20    0.00000
   21   -0.00000
   22   -0.00110
   23    0.00218
   24    0.00000
   25    0.00016
   26    0.00019
   27    0.00006
   28    0.00015
   29    0.00000
   30   -0.00000
   31    0.09209
   32    0.00190
   33    0.00497
   34   -0.00031
   35   -0.00118
   36   -0.00000
   37    0.00175
   38   -0.00106
   39   -0.00000
   40   -0.00009
   41   -0.00143
   42    0.00024
   43   -0.00014
   44    0.00000
   45   -0.00000
   46    0.98850
   47    0.02744
   48   -0.02065
   49   -0.00080
   50   -0.00172
   51   -0.00000
   52   -0.00125
   53   -0.00060
   54    0.00000
   55    0.00232
   56    0.00352
   57    0.00163
   58    0.00005
   59   -0.00000
   60    0.00000
   61   -0.00000
   62   -0.00042
   63    0.00130
   64    0.00403
   65   -0.00058
   66    0.00036
   67    0.00000
   68   -0.00118
   69    0.00079
   70    0.00000
   71    0.00001
   72    0.00021
   73    0.00000
   74   -0.00209
   75   -0.00106
   76   -0.00009
   77    0.00127
   78    0.00000
   79   -0.00000
   80    0.00004
   81    0.00020
   82   -0.00009
   83   -0.00002
   84    0.00000
   85    0.00022
   86    0.00038
   87    0.00013
   88   -0.00012
   89   -0.00000
   90   -0.00056
   91   -0.00159
   92    0.00002
   93    0.00034
   94    0.00000
   95    0.00118
   96   -0.00073
   97    0.00141
   98    0.00829
   99   -0.00054
  100   -0.00024
  101    0.00000
  102   -0.00036
  103   -0.00014
  104    0.00000
  105    0.00118
  106    0.00050
  107   -0.00000
  108   -0.00255
  109   -0.00151
  110    0.00000
  111   -0.00088
  112   -0.00119
  113   -0.00129
  114    0.00017
  115   -0.00000
  116   -0.00000
  117   -0.00224
  118   -0.00183
  119   -0.00163
  120   -0.00014
  121    0.00000
  122   -0.00000
 Ene= 0.0
 Spin= Alpha
 Occup=     2.0000
    1    0.99217
    2    0.02818
    3   -0.02145
    4   -0.00017
    5   -0.00006
    6    0.00000
    7   -0.00266
    8    0.00030
    9    0.00000
   10    0.00501
   11    0.00341
   12    0.00171
   13   -0.00077
   14   -0.00001
   15    0.00000
   16    0.02513
   17   -0.00020
   18    0.00898
   19    0.00099
   20   -0.00116
   21   -0.00000
   22    0.00050
   23   -0.00003
   24   -0.00000
   25   -0.00070
   26   -0.00163
   27    0.00018
   28    0.00064
   29    0.00000
   30   -0.00000
   31    0.00069
   32   -0.00050
   33   -0.00133
   34   -0.00016
   35   -0.00014
   36    0.00000
   37    0.00087
   38    0.00242
   39    0.00000
   40    0.00040
   41    0.00009
   42    0.00000
   43   -0.00014
   44   -0.00000
   45    0.00000
   46   -0.00069
   47   -0.00054
   48   -0.00097
   49    0.00008
   50    0.00006
   51   -0.00000
   52   -0.00123
   53   -0.00012
   54    0.00000
   55    0.00023
   56   -0.00006
   57   -0.00005
   58    0.00011
   59   -0.00000
   60   -0.00000
   61   -0.00001
   62   -0.00043
   63    0.00135
   64    0.00436
   65    0.00008
   66    0.00017
   67    0.00000
   68    0.00018
   69    0.00047
   70    0.00000
   71   -0.00036
   72   -0.00082
   73   -0.00000
   74   -0.00106
   75   -0.00208
   76   -0.00016
   77   -0.00106
   78    0.00000
   79   -0.00000
   80   -0.00351
   81    0.00432
   82   -0.00218
   83   -0.00010
   84    0.00000
   85   -0.00004
   86   -0.00111
   87   -0.00010
   88    0.00055
   89    0.00000
   90    0.00020
   91    0.00049
   92   -0.00005
   93   -0.00021
   94   -0.00000
   95   -0.00023
   96    0.00008
   97   -0.00018
   98   -0.00025
   99    0.00005
  100    0.00002
  101   -0.00000
  102    0.00001
  103    0.00001
  104   -0.00000
  105   -0.00031
  106   -0.00014
  107    0.00000
  108   -0.00000
  109   -0.00009
  110   -0.00000
  111    0.00020
  112    0.00020
  113    0.00019
  114   -0.00001
  115   -0.00000
  116    0.00000
  117    0.00036
  118    0.00030
  119    0.00031
  120    0.00011
  121    0.00000
  122   -0.00000
 Ene= 0.0
 Spin= Alpha
 Occup=     2.0000
    1   -0.00002
    2    0.00019
    3    0.00056
    4   -0.00007
    5   -0.00017
    6   -0.00000
    7   -0.00008
    8    0.00019
    9    0.00000
   10   -0.00018
   11   -0.00032
   12   -0.00002
   13   -0.00020
   14    0.00000
   15   -0.00000
   16    0.00001
   17   -0.00010
   18    0.00001
   19   -0.00003
   20   -0.00001
   21    0.00000
   22    0.00007
   23    0.00020
   24    0.00000
   25    0.00002
   26    0.00007
   27   -0.00002
   28    0.00001
   29   -0.00000
   30    0.00000
   31    0.00001
   32   -0.00008
   33   -0.00034
   34    0.00003
   35    0.00000
   36   -0.00000
   37   -0.00025
   38   -0.00010
   39    0.00000
   40    0.00003
   41    0.00004
   42   -0.00001
   43   -0.00003
   44   -0.00000
   45    0.00000
   46   -0.00002
   47    0.00020
   48    0.00078
   49    0.00014
   50   -0.00009
   51   -0.00000
   52    0.00007
   53   -0.00010
   54   -0.00000
   55   -0.00034
   56   -0.00013
   57   -0.00002
   58    0.00020
   59    0.00000
   60   -0.00000
   61   -0.99374
   62    0.02851
   63   -0.02639
   64   -0.00202
   65    0.00000
   66    0.00001
   67    0.00000
   68    0.00006
   69   -0.00021
   70   -0.00000
   71   -0.00006
   72    0.00041
   73    0.00000
   74    0.00973
   75    0.00973
   76    0.00963
   77   -0.00000
   78   -0.00000
   79    0.00000
   80   -0.00005
   81   -0.00008
   82    0.00005
   83    0.00000
   84   -0.00000
   85    0.00003
   86    0.00007
   87   -0.00001
   88   -0.00002
   89   -0.00000
   90    0.00003
   91    0.00010
   92    0.00002
   93    0.00000
   94   -0.00000
   95    0.00004
   96   -0.00002
   97   -0.00002
   98    0.00014
   99   -0.00003
  100   -0.00000
  101    0.00000
  102   -0.00000
  103   -0.00000
  104    0.00000
  105    0.00012
  106    0.00001
  107   -0.00000
  108   -0.00009
  109    0.00008
  110    0.00000
  111   -0.00005
  112   -0.00003
  113   -0.00002
  114    0.00001
  115    0.00000
  116   -0.00000
  117   -0.00004
  118   -0.00011
  119   -0.00010
  120   -0.00005
  121   -0.00000
  122    0.00000
 Ene= 0.0
 Spin= Alpha
 Occup=     2.0000
    1   -0.13623
    2    0.25082
    3    0.05861
    4    0.08601
    5   -0.00495
    6   -0.00012
    7    0.02485
    8   -0.00183
    9   -0.00003
   10    0.02421
   11    0.02665
   12    0.00569
   13   -0.00118
   14   -0.00003
   15    0.00002
   16   -0.13848
   17    0.25081
   18    0.05339
   19    0.02112
   20    0.08524
   21    0.00005
   22   -0.00144
   23    0.01345
   24    0.00001
   25    0.02190
   26    0.02267
   27    0.00597
   28   -0.00040
   29   -0.00002
   30    0.00002
   31   -0.12564
   32    0.22906
   33    0.07056
   34   -0.06038
   35    0.05244
   36    0.00013
   37   -0.02462
   38    0.01450
   39    0.00004
   40    0.02282
   41    0.01955
   42    0.00517
   43    0.00034
   44   -0.00003
   45    0.00002
   46   -0.07009
   47    0.12525
   48   -0.00651
   49   -0.02912
   50   -0.09235
   51   -0.00005
   52    0.01429
   53   -0.03503
   54   -0.00005
   55    0.01088
   56    0.01445
   57    0.00146
   58    0.00391
   59   -0.00001
   60    0.00001
   61   -0.03145
   62   -0.19300
   63    0.25615
   64    0.13065
   65   -0.02667
   66   -0.03225
   67    0.00000
   68   -0.04811
   69   -0.04881
   70    0.00001
   71   -0.03995
   72   -0.02515
   73    0.00003
   74    0.00472
   75    0.03176
   76   -0.00487
   77    0.01185
   78   -0.00000
   79    0.00002
   80    0.04605
   81    0.00911
   82    0.00366
   83    0.00003
   84   -0.00000
   85    0.04761
   86    0.00708
   87    0.00156
   88    0.00441
   89    0.00000
   90    0.04247
   91    0.00659
   92   -0.00259
   93    0.00289
   94    0.00001
   95   -0.01967
   96   -0.01811
   97    0.03861
   98    0.03103
   99   -0.00065
  100    0.00311
  101    0.00000
  102   -0.00087
  103    0.00368
  104    0.00000
  105    0.00439
  106   -0.00796
  107   -0.00001
  108   -0.00411
  109   -0.00401
  110    0.00000
  111   -0.00123
  112   -0.00176
  113    0.00209
  114   -0.00467
  115    0.00000
  116    0.00000
  117   -0.00092
  118   -0.00090
  119   -0.00314
  120    0.00214
  121   -0.00000
  122   -0.00000
 Ene= 0.0
 Spin= Alpha
 Occup=     2.0000
    1    0.00001
    2   -0.00005
    3   -0.00015
    4   -0.00003
    5   -0.00002
    6    0.00000
    7    0.00003
    8    0.00011
    9    0.00000
   10   -0.00000
   11   -0.00001
   12   -0.00000
   13    0.00000
   14   -0.00000
   15   -0.00000
   16    0.00002
   17   -0.00005
   18   -0.00016
   19   -0.00003
   20   -0.00002
   21    0.00000
   22   -0.00031
   23    0.00016
   24    0.00000
   25   -0.00001
   26   -0.00001
   27   -0.00000
   28    0.00000
   29    0.00000
   30   -0.00000
   31   -0.00003
   32    0.00013
   33   -0.00085
   34    0.00002
   35    0.00010
   36    0.00000
   37   -0.00025
   38   -0.00069
   39   -0.00000
   40    0.00002
   41    0.00001
   42    0.00002
   43   -0.00002
   44   -0.00000
   45    0.00000
   46    0.00039
   47   -0.00075
   48    0.00080
   49   -0.00078
   50   -0.00048
   51    0.00000
   52   -0.00066
   53   -0.00080
   54    0.00000
   55   -0.00012
   56   -0.00002
   57   -0.00011
   58   -0.00011
   59   -0.00000
   60    0.00000
   61   -0.00001
   62   -0.00006
   63    0.00016
   64   -0.00034
   65    0.00003
   66   -0.00001
   67   -0.00000
   68    0.00008
   69   -0.00004
   70   -0.00000
   71   -0.00003
   72    0.00021
   73    0.00000
   74   -0.00001
   75    0.00005
   76    0.00006
   77    0.00002
   78    0.00000
   79   -0.00000
   80    0.00003
   81    0.00005
   82    0.00000
   83   -0.00001
   84   -0.00000
   85    0.00004
   86    0.00006
   87    0.00001
   88   -0.00000
   89   -0.00000
   90    0.00007
   91    0.00005
   92    0.00005
   93    0.00005
   94   -0.00000
   95    0.00027
   96    0.00009
   97   -0.00024
   98    0.00048
   99   -0.00023
  100   -0.00013
  101    0.00000
  102   -0.00026
  103   -0.00014
  104    0.00000
  105    0.00052
  106    0.00034
  107   -0.00000
  108    0.00020
  109    0.00016
  110   -0.00000
  111    0.15548
  112    0.68007
  113   -0.83583
  114   -0.42082
  115   -0.00183
  116    0.00216
  117    0.00689
  118    0.03045
  119   -0.03709
  120   -0.01895
  121   -0.00008
  122    0.00010
 Ene= 0.0
 Spin= Alpha
 Occup=     2.0000
    1   -0.00000
    2    0.00000
    3   -0.00000
    4    0.00000
    5   -0.00000
    6    0.00007
    7    0.00000
    8   -0.00000
    9    0.00003
   10    0.00000
   11   -0.00000
   12    0.00000
   13    0.00000
   14    0.00000
   15    0.00001
   16   -0.00000
   17    0.00000
   18    0.00000
   19    0.00000
   20   -0.00000
   21    0.00001
   22    0.00000
   23   -0.00000
   24    0.00002
   25    0.00000
   26   -0.00000
   27    0.00000
   28    0.00000
   29    0.00000
   30    0.00000
   31    0.00000
   32   -0.00000
   33   -0.00000
   34    0.00000
   35   -0.00000
   36    0.00003
   37   -0.00000
   38    0.00000
   39   -0.00003
   40    0.00000
   41   -0.00000
   42   -0.00000
   43    0.00000
   44    0.00001
   45    0.00001
   46   -0.00000
   47    0.00000
   48    0.00000
   49    0.00000
   50   -0.00000
   51    0.00008
   52    0.00000
   53   -0.00000
   54    0.00005
   55    0.00000
   56    0.00000
   57   -0.00000
   58   -0.00000
   59    0.00003
   60   -0.00004
   61    0.00000
   62    0.00000
   63   -0.00000
   64    0.00000
   65    0.00000
   66   -0.00000
   67    0.00010
   68    0.00000
   69   -0.00000
   70    0.00017
   71    0.00000
   72   -0.00000
   73    0.00026
   74   -0.00000
   75    0.00000
   76   -0.00000
   77   -0.00000
   78   -0.00001
   79   -0.00002
   80   -0.00000
   81   -0.00000
   82    0.00000
   83   -0.00000
   84    0.00000
   85    0.00000
   86    0.00000
   87   -0.00000
   88    0.00000
   89   -0.00000
   90    0.00000
   91    0.00000
   92    0.00000
   93   -0.00000
   94    0.00001
   95    0.00000
   96    0.00000
   97   -0.00000
   98   -0.00000
   99    0.00000
  100    0.00000
  101    0.00001
  102    0.00000
  103    0.00000
  104    0.00001
  105   -0.00000
  106    0.00000
  107   -0.00006
  108   -0.00000
  109    0.00000
  110   -0.00004
  111    0.00097
  112    0.00142
  113   -0.00239
  114   -0.00152
  115    0.44924
  116   -0.87493
  117    0.00004
  118    0.00006
  119   -0.00011
  120   -0.00007
  121    0.02003
  122   -0.03901
 Ene= 0.0
 Spin= Alpha
 Occup=     2.0000
    1    0.00003
    2   -0.00011
    3    0.00148
    4   -0.00009
    5   -0.00011
    6    0.00000
    7    0.00076
    8   -0.00016
    9   -0.00000
   10    0.00003
   11   -0.00001
   12   -0.00002
   13    0.00001
   14   -0.00000
   15   -0.00000
   16   -0.00000
   17    0.00011
   18   -0.00261
   19    0.00006
   20    0.00000
   21   -0.00000
   22   -0.00057
   23   -0.00109
   24   -0.00000
   25   -0.00002
   26   -0.00001
   27    0.00003
   28   -0.00001
   29    0.00000
   30   -0.00000
   31    0.00000
   32   -0.00010
   33    0.00413
   34    0.00003
   35    0.00008
   36    0.00000
   37   -0.00069
   38    0.00116
   39    0.00000
   40    0.00007
   41    0.00021
   42   -0.00000
   43    0.00005
   44   -0.00000
   45    0.00000
   46   -0.00027
   47    0.00051
   48   -0.00162
   49    0.00036
   50   -0.00065
   51   -0.00000
   52   -0.00080
   53    0.00282
   54    0.00000
   55    0.00063
   56   -0.00057
   57    0.00002
   58   -0.00041
   59   -0.00000
   60   -0.00000
   61   -0.00001
   62   -0.00008
   63    0.00033
   64   -0.00154